
  ___ ___ ___ _ _ _  
 |   |   |_  | | | | 
 | | | | | . | | | | 
 |__ |  _|___|_____|  19.8.1
 |___|_|             

User:   elliot@elliot-latitudee6220
Date:   Thu Mar  4 14:33:01 2021
Arch:   x86_64
Pid:    87379
Python: 3.8.3
gpaw:   /home/elliot/anaconda3/lib/python3.8/site-packages/gpaw
_gpaw:  /home/elliot/anaconda3/lib/python3.8/site-packages/
        _gpaw.cpython-38-x86_64-linux-gnu.so
ase:    /home/elliot/anaconda3/lib/python3.8/site-packages/ase (version 3.19.0)
numpy:  /home/elliot/anaconda3/lib/python3.8/site-packages/numpy (version 1.18.5)
scipy:  /home/elliot/anaconda3/lib/python3.8/site-packages/scipy (version 1.5.0)
libxc:  4.3.4
units:  Angstrom and eV
cores:  1

Input parameters:
  nbands: 2

System changes: positions, numbers, cell, pbc, initial_charges, initial_magmoms 

Initialize ...

H-setup:
  name: Hydrogen
  id: 4766778ce56282eaa64abeb28b7c1de3
  Z: 1
  valence: 1
  core: 0
  charge: 0.0
  file: /home/elliot/gpaw-setups-0.9.20000/H.LDA.gz
  compensation charges: gauss, rc=0.15, lmax=2
  cutoffs: 0.85(filt), 0.53(core),
  valence states:
                energy  radius
    1s(1.00)    -6.353   0.476
    *s          20.858   0.476
    *p           0.000   0.476

  Using partial waves for H as LCAO basis

Reference energy: -24.257917

Spin-paired calculation

Occupation numbers:
  Fermi-Dirac: width=0.0000 eV

Convergence criteria:
  Maximum total energy change: 0.0005 eV / electron
  Maximum integral of absolute density change: 0.0001 electrons
  Maximum integral of absolute eigenstate change: 4e-08 eV^2
  Maximum number of iterations: 333

Symmetries present (total): 1

  ( 1  0  0)
  ( 0  1  0)
  ( 0  0  1)

1 k-point (Gamma)
1 k-point in the irreducible part of the Brillouin zone
       k-points in crystal coordinates                weights
   0:     0.00000000    0.00000000    0.00000000          1/1

Wave functions: Uniform real-space grid
  Kinetic energy operator: 6*3+1=19 point O(h^6) finite-difference Laplacian
  ScaLapack parameters: grid=1x1, blocksize=None
  Wavefunction extrapolation:
    Improved wavefunction reuse through dual PAW basis 

Eigensolver
   Davidson(niter=2, smin=None, normalize=True) 

Densities:
  Coarse grid: 28*28*28 grid
  Fine grid: 56*56*56 grid
  Total Charge: 0.000000 

Density mixing:
  Method: separate
  Backend: pulay
  Linear mixing parameter: 0.25
  Mixing with 3 old densities
  No damping of long wave oscillations 

Hamiltonian:
  XC and Coulomb potentials evaluated on a 56*56*56 grid
  Using the LDA Exchange-Correlation functional
  Interpolation: tri-quintic (5. degree polynomial)
  Poisson solver: FastPoissonSolver using
    6*3+1=19 point O(h^6) finite-difference Laplacian stencil;
    FFT axes: [];
    FST axes: [0, 1, 2].
 

Memory estimate:
  Process memory now: 116.91 MiB
  Calculator: 9.51 MiB
    Density: 5.41 MiB
      Arrays: 4.11 MiB
      Localized functions: 0.41 MiB
      Mixer: 0.90 MiB
    Hamiltonian: 2.72 MiB
      Arrays: 2.69 MiB
      XC: 0.00 MiB
      Poisson: 0.00 MiB
      vbar: 0.03 MiB
    Wavefunctions: 1.37 MiB
      Arrays psit_nG: 0.30 MiB
      Eigensolver: 1.05 MiB
      Projections: 0.00 MiB
      Projectors: 0.02 MiB

Total number of cores used: 1

Number of atoms: 2
Number of atomic orbitals: 2
Number of bands in calculation: 2
Bands to converge: occupied states only
Number of valence electrons: 2

... initialized

Initializing position-dependent things.

Density initialized from atomic densities
Creating initial wave functions:
  2 bands from LCAO basis set

     .--------------.  
    /|              |  
   / |              |  
  /  |              |  
 *   |              |  
 |   |    H         |  
 |   |    H         |  
 |   .--------------.  
 |  /              /   
 | /              /    
 |/              /     
 *--------------*      

Positions:
   0 H      3.000000    3.000000    2.630000    ( 0.0000,  0.0000,  0.0000)
   1 H      3.000000    3.000000    3.370000    ( 0.0000,  0.0000,  0.0000)

Unit cell:
           periodic     x           y           z      points  spacing
  1. axis:    no     6.000000    0.000000    0.000000    28     0.2143
  2. axis:    no     0.000000    6.000000    0.000000    28     0.2143
  3. axis:    no     0.000000    0.000000    6.000000    28     0.2143

  Lengths:   6.000000   6.000000   6.000000
  Angles:   90.000000  90.000000  90.000000

Effective grid spacing dv^(1/3) = 0.2143

                     log10-error:    total        iterations:
           time      wfs    density  energy       fermi  poisson
iter:   1  14:33:04  +1.90   +inf    -7.322733    0      1      
iter:   2  14:33:04  +0.17  -0.42    -7.004088    0      1      
iter:   3  14:33:04  +0.54  -0.54    -6.680960    0      1      
iter:   4  14:33:04  -0.25  -0.96    -6.626788    0      1      
iter:   5  14:33:04  -0.96  -1.88    -6.627783    0      1      
iter:   6  14:33:04  -2.20  -1.93    -6.627414    0      1      
iter:   7  14:33:04  -3.47  -2.37    -6.627347    0      1      
iter:   8  14:33:04  -3.85  -2.95    -6.627347    0      1      
iter:   9  14:33:04  -5.22  -3.54    -6.627347    0      1      
iter:  10  14:33:04  -6.05  -3.76    -6.627349    0      1      
iter:  11  14:33:04  -6.05  -3.79    -6.627349    0      1      
iter:  12  14:33:05  -7.19  -4.63    -6.627349    0      1      
iter:  13  14:33:05  -7.80  -5.00    -6.627349    0      1      

Converged after 13 iterations.

Dipole moment: (-0.000000, 0.000000, -0.000000) |e|*Ang

Energy contributions relative to reference atoms: (reference = -24.257917)

Kinetic:         +7.310020
Potential:       -8.722324
External:        +0.000000
XC:              -5.162338
Entropy (-ST):   +0.000000
Local:           -0.052707
--------------------------
Free energy:     -6.627349
Extrapolated:    -6.627349

Fermi level: -4.35470

 Band  Eigenvalues  Occupancy
    0    -10.22789    2.00000
    1      1.51850    0.00000

Gap: 11.746 eV
Transition (v -> c):
  (s=0, k=0, n=0, [0.00, 0.00, 0.00]) -> (s=0, k=0, n=1, [0.00, 0.00, 0.00])

Forces in eV/Ang:
  0 H    -0.00000    0.00000   -0.84513
  1 H     0.00000    0.00000    0.84513

Timing:                              incl.     excl.
-----------------------------------------------------------
Forces:                              0.004     0.004   0.0% |
Hamiltonian:                         0.102     0.000   0.0% |
 Atomic:                             0.018     0.001   0.0% |
  XC Correction:                     0.017     0.017   0.0% |
 Calculate atomic Hamiltonians:      0.000     0.000   0.0% |
 Communicate:                        0.000     0.000   0.0% |
 Hartree integrate/restrict:         0.002     0.002   0.0% |
 Initialize Hamiltonian:             0.000     0.000   0.0% |
 Poisson:                            0.043     0.001   0.0% |
  Communicate bwd 0:                 0.002     0.002   0.0% |
  Communicate bwd 1:                 0.002     0.002   0.0% |
  Communicate fwd 0:                 0.003     0.003   0.0% |
  Communicate fwd 1:                 0.003     0.003   0.0% |
  fft:                               0.004     0.004   0.0% |
  fft2:                              0.029     0.029   0.0% |
 XC 3D grid:                         0.033     0.033   0.0% |
 vbar:                               0.005     0.005   0.0% |
LCAO initialization:                 0.132     0.006   0.0% |
 LCAO eigensolver:                   0.101     0.000   0.0% |
  Calculate projections:             0.000     0.000   0.0% |
  DenseAtomicCorrection:             0.000     0.000   0.0% |
  Distribute overlap matrix:         0.000     0.000   0.0% |
  Orbital Layouts:                   0.100     0.100   0.1% |
  Potential matrix:                  0.000     0.000   0.0% |
 LCAO to grid:                       0.001     0.001   0.0% |
 Set positions (LCAO WFS):           0.024     0.001   0.0% |
  Basic WFS set positions:           0.000     0.000   0.0% |
  Basis functions set positions:     0.000     0.000   0.0% |
  P tci:                             0.017     0.017   0.0% |
  ST tci:                            0.001     0.001   0.0% |
  mktci:                             0.005     0.005   0.0% |
SCF-cycle:                           1.206     0.013   0.0% |
 Davidson:                           0.211     0.061   0.0% |
  Apply hamiltonian:                 0.013     0.013   0.0% |
  Subspace diag:                     0.049     0.001   0.0% |
   calc_h_matrix:                    0.041     0.026   0.0% |
    Apply hamiltonian:               0.015     0.015   0.0% |
   diagonalize:                      0.003     0.003   0.0% |
   rotate_psi:                       0.004     0.004   0.0% |
  calc. matrices:                    0.057     0.028   0.0% |
   Apply hamiltonian:                0.029     0.029   0.0% |
  diagonalize:                       0.026     0.026   0.0% |
  rotate_psi:                        0.005     0.005   0.0% |
 Density:                            0.042     0.000   0.0% |
  Atomic density matrices:           0.006     0.006   0.0% |
  Mix:                               0.032     0.032   0.0% |
  Multipole moments:                 0.002     0.002   0.0% |
  Pseudo density:                    0.002     0.002   0.0% |
   Symmetrize density:               0.000     0.000   0.0% |
 Hamiltonian:                        0.887     0.001   0.0% |
  Atomic:                            0.197     0.008   0.0% |
   XC Correction:                    0.190     0.190   0.1% |
  Calculate atomic Hamiltonians:     0.006     0.006   0.0% |
  Communicate:                       0.000     0.000   0.0% |
  Hartree integrate/restrict:        0.019     0.019   0.0% |
  Poisson:                           0.256     0.010   0.0% |
   Communicate bwd 0:                0.024     0.024   0.0% |
   Communicate bwd 1:                0.023     0.023   0.0% |
   Communicate fwd 0:                0.024     0.024   0.0% |
   Communicate fwd 1:                0.025     0.025   0.0% |
   fft:                              0.048     0.048   0.0% |
   fft2:                             0.102     0.102   0.1% |
  XC 3D grid:                        0.401     0.401   0.3% |
  vbar:                              0.006     0.006   0.0% |
 Orthonormalize:                     0.053     0.000   0.0% |
  calc_s_matrix:                     0.019     0.019   0.0% |
  inverse-cholesky:                  0.033     0.033   0.0% |
  projections:                       0.000     0.000   0.0% |
  rotate_psi_s:                      0.001     0.001   0.0% |
Set symmetry:                        0.008     0.008   0.0% |
Other:                             143.358   143.358  99.0% |---------------------------------------|
-----------------------------------------------------------
Total:                                       144.809 100.0%

Memory usage: 125.58 MiB
Date: Thu Mar  4 14:35:26 2021
